<?xml version="1.0" encoding="UTF-8"?>

<!-- generated on 2025-12-29T00:15:53.029473+05:30 by Eclipse SUMO sumo 1.25.0
<sumoConfiguration xmlns:xsi="http://www.w3.org/2001/XMLSchema-instance" xsi:noNamespaceSchemaLocation="http://sumo.dlr.de/xsd/sumoConfiguration.xsd">

    <input>
        <net-file value="coldplay/osm_tls.net.xml.gz"/>
        <route-files value="coldplay/   osm.passenger.trips_scaled.xml,coldplay/   osm.motorcycle.trips_scaled.xml,coldplay/   osm.bus.trips_scaled.xml,coldplay/   osm.truck.trips_scaled.xml"/>
        <additional-files value="coldplay/osm.poly.xml.gz,coldplay/output.add.xml,coldplay/rl_traffic_lights.add.xml"/>
    </input>

    <output>
        <tripinfo-output value="coldplay/tripinfos.xml"/>
        <statistic-output value="coldplay/stats.xml"/>
    </output>

    <processing>
        <ignore-route-errors value="true"/>
        <tls.actuated.jam-threshold value="30"/>
    </processing>

    <routing>
        <device.rerouting.adaptation-steps value="18"/>
        <device.rerouting.adaptation-interval value="10"/>
    </routing>

    <report>
        <verbose value="true"/>
        <no-warnings value="true"/>
        <duration-log.statistics value="true"/>
        <no-step-log value="true"/>
    </report>

    <traci_server>
        <remote-port value="45255"/>
    </traci_server>

    <gui_only>
        <gui-settings-file value="coldplay/osm.view.xml"/>
    </gui_only>

</sumoConfiguration>
-->

<tripinfos xmlns:xsi="http://www.w3.org/2001/XMLSchema-instance" xsi:noNamespaceSchemaLocation="http://sumo.dlr.de/xsd/tripinfo_file.xsd">
</tripinfos>
