<?xml version="1.0" encoding="UTF-8"?>

<!-- generated on 2025-12-29T03:38:56.670923+05:30 by Eclipse SUMO sumo 1.25.0
<sumoConfiguration xmlns:xsi="http://www.w3.org/2001/XMLSchema-instance" xsi:noNamespaceSchemaLocation="http://sumo.dlr.de/xsd/sumoConfiguration.xsd">

    <input>
        <net-file value="/mnt/Windows-SSD/Users/yvavi/yeet/coding/projects/delhi/Code-Slayer-FDRL-Traffic/vegha/Server/coldplay2/osm2.net.xml.gz"/>
        <route-files value="/mnt/Windows-SSD/Users/yvavi/yeet/coding/projects/delhi/Code-Slayer-FDRL-Traffic/vegha/Server/coldplay2/   osm.passenger.trips_scaled.xml,/mnt/Windows-SSD/Users/yvavi/yeet/coding/projects/delhi/Code-Slayer-FDRL-Traffic/vegha/Server/coldplay2/   osm.motorcycle.trips_scaled.xml,/mnt/Windows-SSD/Users/yvavi/yeet/coding/projects/delhi/Code-Slayer-FDRL-Traffic/vegha/Server/coldplay2/   osm.bus.trips_scaled.xml,/mnt/Windows-SSD/Users/yvavi/yeet/coding/projects/delhi/Code-Slayer-FDRL-Traffic/vegha/Server/coldplay2/   osm.truck.trips_scaled.xml"/>
        <additional-files value="/mnt/Windows-SSD/Users/yvavi/yeet/coding/projects/delhi/Code-Slayer-FDRL-Traffic/vegha/Server/coldplay2/osm.poly.xml.gz,/mnt/Windows-SSD/Users/yvavi/yeet/coding/projects/delhi/Code-Slayer-FDRL-Traffic/vegha/Server/coldplay2/output.add.xml,/mnt/Windows-SSD/Users/yvavi/yeet/coding/projects/delhi/Code-Slayer-FDRL-Traffic/vegha/Server/coldplay2/rl_traffic_lights.add.xml"/>
    </input>

    <output>
        <tripinfo-output value="/mnt/Windows-SSD/Users/yvavi/yeet/coding/projects/delhi/Code-Slayer-FDRL-Traffic/vegha/Server/coldplay2/tripinfos.xml"/>
        <statistic-output value="/mnt/Windows-SSD/Users/yvavi/yeet/coding/projects/delhi/Code-Slayer-FDRL-Traffic/vegha/Server/coldplay2/stats.xml"/>
    </output>

    <time>
        <step-length value="1"/>
    </time>

    <processing>
        <ignore-route-errors value="true"/>
        <tls.actuated.jam-threshold value="30"/>
    </processing>

    <routing>
        <device.rerouting.adaptation-steps value="18"/>
        <device.rerouting.adaptation-interval value="10"/>
    </routing>

    <report>
        <verbose value="true"/>
        <no-warnings value="true"/>
        <duration-log.statistics value="true"/>
        <no-step-log value="true"/>
    </report>

    <gui_only>
        <gui-settings-file value="/mnt/Windows-SSD/Users/yvavi/yeet/coding/projects/delhi/Code-Slayer-FDRL-Traffic/vegha/Server/coldplay2/osm.view.xml"/>
    </gui_only>

</sumoConfiguration>
-->

<tripinfos xmlns:xsi="http://www.w3.org/2001/XMLSchema-instance" xsi:noNamespaceSchemaLocation="http://sumo.dlr.de/xsd/tripinfo_file.xsd">
    <tripinfo id="motorcycle26" depart="28.00" departLane="423840850#0_0" departPos="2.30" departSpeed="0.00" departDelay="0.81" arrival="42.00" arrivalLane="787858368#1_0" arrivalPos="51.34" arrivalSpeed="12.04" duration="14.00" routeLength="127.74" waitingTime="0.00" waitingCount="0" stopTime="0.00" timeLoss="3.17" rerouteNo="1" devices="tripinfo_motorcycle26 routing_motorcycle26" vType="motorcycle_motorcycle" speedFactor="0.91" vaporized=""/>
    <tripinfo id="veh17" depart="9.00" departLane="1195576992#11_0" departPos="5.10" departSpeed="0.00" departDelay="0.11" arrival="61.00" arrivalLane="-1195576992#4_0" arrivalPos="0.13" arrivalSpeed="11.91" duration="52.00" routeLength="606.19" waitingTime="2.00" waitingCount="1" stopTime="0.00" timeLoss="18.18" rerouteNo="1" devices="tripinfo_veh17 routing_veh17" vType="veh_passenger" speedFactor="0.83" vaporized=""/>
    <tripinfo id="motorcycle24" depart="26.00" departLane="787945997_0" departPos="2.30" departSpeed="0.00" departDelay="0.90" arrival="84.00" arrivalLane="215089904#1_0" arrivalPos="29.87" arrivalSpeed="12.04" duration="58.00" routeLength="540.71" waitingTime="6.00" waitingCount="1" stopTime="0.00" timeLoss="18.63" rerouteNo="1" devices="tripinfo_motorcycle24 routing_motorcycle24" vType="motorcycle_motorcycle" speedFactor="0.91" vaporized=""/>
    <tripinfo id="motorcycle38" depart="40.00" departLane="1192595036#0_0" departPos="2.30" departSpeed="14.21" departDelay="0.27" arrival="91.00" arrivalLane="749128442#2_0" arrivalPos="16.69" arrivalSpeed="22.57" duration="51.00" routeLength="302.58" waitingTime="14.00" waitingCount="4" stopTime="0.00" timeLoss="31.46" rerouteNo="1" devices="tripinfo_motorcycle38 routing_motorcycle38" vType="motorcycle_motorcycle" speedFactor="1.02" vaporized=""/>
    <tripinfo id="veh13" depart="7.00" departLane="1431978404#0_0" departPos="5.10" departSpeed="0.00" departDelay="0.20" arrival="97.00" arrivalLane="708292171_0" arrivalPos="75.43" arrivalSpeed="21.98" duration="90.00" routeLength="556.65" waitingTime="23.00" waitingCount="3" stopTime="0.00" timeLoss="52.30" rerouteNo="1" devices="tripinfo_veh13 routing_veh13" vType="veh_passenger" speedFactor="1.03" vaporized=""/>
    <tripinfo id="motorcycle13" depart="14.00" departLane="-1195576992#10_0" departPos="2.30" departSpeed="0.00" departDelay="0.41" arrival="98.00" arrivalLane="749128442#4_0" arrivalPos="43.64" arrivalSpeed="18.74" duration="84.00" routeLength="1075.48" waitingTime="9.00" waitingCount="2" stopTime="0.00" timeLoss="32.75" rerouteNo="1" devices="tripinfo_motorcycle13 routing_motorcycle13" vType="motorcycle_motorcycle" speedFactor="0.99" vaporized=""/>
    <tripinfo id="veh45" depart="24.00" departLane="566962241_0" departPos="5.10" departSpeed="23.80" departDelay="0.47" arrival="99.00" arrivalLane="-646210541#3_0" arrivalPos="182.51" arrivalSpeed="11.55" duration="75.00" routeLength="1036.30" waitingTime="3.00" waitingCount="1" stopTime="0.00" timeLoss="19.32" rerouteNo="1" devices="tripinfo_veh45 routing_veh45" vType="veh_passenger" speedFactor="0.86" vaporized=""/>
    <tripinfo id="veh115" depart="61.00" departLane="215089917#0_0" departPos="5.10" departSpeed="0.00" departDelay="0.87" arrival="103.00" arrivalLane="215090078#1_0" arrivalPos="41.51" arrivalSpeed="14.02" duration="42.00" routeLength="432.22" waitingTime="0.00" waitingCount="0" stopTime="0.00" timeLoss="10.37" rerouteNo="1" devices="tripinfo_veh115 routing_veh115" vType="veh_passenger" speedFactor="1.02" vaporized=""/>
    <tripinfo id="motorcycle8" depart="9.00" departLane="-646210541#4_0" departPos="2.30" departSpeed="0.00" departDelay="0.63" arrival="103.00" arrivalLane="-151770988#6_0" arrivalPos="35.25" arrivalSpeed="12.21" duration="94.00" routeLength="1013.98" waitingTime="4.00" waitingCount="3" stopTime="0.00" timeLoss="34.64" rerouteNo="1" devices="tripinfo_motorcycle8 routing_motorcycle8" vType="motorcycle_motorcycle" speedFactor="1.02" vaporized=""/>
    <tripinfo id="motorcycle79" depart="83.00" departLane="-151770988#0_0" departPos="2.30" departSpeed="0.00" departDelay="0.39" arrival="103.00" arrivalLane="659857898#2_0" arrivalPos="117.96" arrivalSpeed="12.52" duration="20.00" routeLength="204.23" waitingTime="0.00" waitingCount="0" stopTime="0.00" timeLoss="3.97" rerouteNo="1" devices="tripinfo_motorcycle79 routing_motorcycle79" vType="motorcycle_motorcycle" speedFactor="0.96" vaporized=""/>
    <tripinfo id="veh3" depart="2.00" departLane="-215089911#0_0" departPos="5.10" departSpeed="0.00" departDelay="0.43" arrival="104.00" arrivalLane="-1160006921#0_0" arrivalPos="235.13" arrivalSpeed="23.03" duration="102.00" routeLength="1444.87" waitingTime="9.00" waitingCount="1" stopTime="0.00" timeLoss="42.70" rerouteNo="1" devices="tripinfo_veh3 routing_veh3" vType="veh_passenger" speedFactor="1.06" vaporized=""/>
    <tripinfo id="veh26" depart="14.00" departLane="215225848_0" departPos="5.10" departSpeed="0.00" departDelay="0.41" arrival="114.00" arrivalLane="-1431976930#1_0" arrivalPos="17.75" arrivalSpeed="11.40" duration="100.00" routeLength="706.63" waitingTime="21.00" waitingCount="4" stopTime="0.00" timeLoss="56.29" rerouteNo="1" devices="tripinfo_veh26 routing_veh26" vType="veh_passenger" speedFactor="0.89" vaporized=""/>
    <tripinfo id="motorcycle2" depart="3.00" departLane="215090046#1_0" departPos="2.30" departSpeed="0.00" departDelay="0.91" arrival="123.00" arrivalLane="566962242#0_0" arrivalPos="39.07" arrivalSpeed="12.21" duration="120.00" routeLength="1208.05" waitingTime="15.00" waitingCount="4" stopTime="0.00" timeLoss="49.10" rerouteNo="1" devices="tripinfo_motorcycle2 routing_motorcycle2" vType="motorcycle_motorcycle" speedFactor="1.08" vaporized=""/>
    <tripinfo id="veh83" depart="44.00" departLane="746615675#6_0" departPos="5.10" departSpeed="0.00" departDelay="0.61" arrival="126.00" arrivalLane="1305503506_0" arrivalPos="18.19" arrivalSpeed="10.92" duration="82.00" routeLength="573.60" waitingTime="16.00" waitingCount="3" stopTime="0.00" timeLoss="41.71" rerouteNo="1" devices="tripinfo_veh83 routing_veh83" vType="veh_passenger" speedFactor="0.88" vaporized=""/>
    <tripinfo id="truck13" depart="34.00" departLane="-1178096191_0" departPos="7.20" departSpeed="13.99" departDelay="0.02" arrival="126.00" arrivalLane="646210541#4_0" arrivalPos="26.64" arrivalSpeed="8.60" duration="92.00" routeLength="949.30" waitingTime="0.00" waitingCount="0" stopTime="0.00" timeLoss="45.99" rerouteNo="1" devices="tripinfo_truck13 routing_truck13" vType="truck_truck" speedFactor="1.01" vaporized=""/>
    <tripinfo id="motorcycle14" depart="15.00" departLane="571283261#4_1" departPos="2.30" departSpeed="0.00" departDelay="0.36" arrival="127.00" arrivalLane="-566962242#6_0" arrivalPos="17.58" arrivalSpeed="10.82" duration="112.00" routeLength="1453.46" waitingTime="8.00" waitingCount="2" stopTime="0.00" timeLoss="37.74" rerouteNo="1" devices="tripinfo_motorcycle14 routing_motorcycle14" vType="motorcycle_motorcycle" speedFactor="0.94" vaporized=""/>
    <tripinfo id="veh29" depart="16.00" departLane="-215090045#0_0" departPos="5.10" departSpeed="0.00" departDelay="0.84" arrival="135.00" arrivalLane="31017890#2_2" arrivalPos="36.33" arrivalSpeed="22.21" duration="119.00" routeLength="828.71" waitingTime="25.00" waitingCount="4" stopTime="0.00" timeLoss="74.96" rerouteNo="1" devices="tripinfo_veh29 routing_veh29" vType="veh_passenger" speedFactor="0.94" vaporized=""/>
    <tripinfo id="motorcycle29" depart="31.00" departLane="-1431976928#0_0" departPos="2.30" departSpeed="0.00" departDelay="0.68" arrival="137.00" arrivalLane="215090070#1_0" arrivalPos="58.65" arrivalSpeed="12.77" duration="106.00" routeLength="834.91" waitingTime="31.00" waitingCount="4" stopTime="0.00" timeLoss="54.81" rerouteNo="1" devices="tripinfo_motorcycle29 routing_motorcycle29" vType="motorcycle_motorcycle" speedFactor="1.04" vaporized=""/>
    <tripinfo id="motorcycle32" depart="34.00" departLane="-789770470_0" departPos="2.30" departSpeed="14.20" departDelay="0.54" arrival="141.00" arrivalLane="-1195576992#10_0" arrivalPos="48.09" arrivalSpeed="19.80" duration="107.00" routeLength="877.85" waitingTime="17.00" waitingCount="3" stopTime="0.00" timeLoss="52.18" rerouteNo="1" devices="tripinfo_motorcycle32 routing_motorcycle32" vType="motorcycle_motorcycle" speedFactor="1.02" vaporized=""/>
    <tripinfo id="motorcycle47" depart="50.00" departLane="566962242#9_0" departPos="2.30" departSpeed="0.00" departDelay="0.85" arrival="141.00" arrivalLane="31017880#0_0" arrivalPos="128.02" arrivalSpeed="20.17" duration="91.00" routeLength="1011.66" waitingTime="14.00" waitingCount="3" stopTime="0.00" timeLoss="39.65" rerouteNo="1" devices="tripinfo_motorcycle47 routing_motorcycle47" vType="motorcycle_motorcycle" speedFactor="0.94" vaporized=""/>
    <tripinfo id="motorcycle96" depart="101.00" departLane="-215089945_0" departPos="2.30" departSpeed="0.00" departDelay="0.62" arrival="141.00" arrivalLane="749128442#3_0" arrivalPos="12.59" arrivalSpeed="11.08" duration="40.00" routeLength="288.60" waitingTime="4.00" waitingCount="2" stopTime="0.00" timeLoss="22.32" rerouteNo="1" devices="tripinfo_motorcycle96 routing_motorcycle96" vType="motorcycle_motorcycle" speedFactor="0.98" vaporized=""/>
    <tripinfo id="veh4" depart="3.00" departLane="825118129#3_0" departPos="5.10" departSpeed="0.00" departDelay="0.91" arrival="146.00" arrivalLane="415062368_0" arrivalPos="64.33" arrivalSpeed="14.04" duration="143.00" routeLength="1548.89" waitingTime="18.00" waitingCount="5" stopTime="0.00" timeLoss="72.36" rerouteNo="1" devices="tripinfo_veh4 routing_veh4" vType="veh_passenger" speedFactor="1.08" vaporized=""/>
    <tripinfo id="motorcycle6" depart="7.00" departLane="1431976931_0" departPos="2.30" departSpeed="0.00" departDelay="0.73" arrival="151.00" arrivalLane="415046264_0" arrivalPos="17.70" arrivalSpeed="11.10" duration="144.00" routeLength="855.22" waitingTime="34.00" waitingCount="6" stopTime="0.00" timeLoss="95.44" rerouteNo="1" devices="tripinfo_motorcycle6 routing_motorcycle6" vType="motorcycle_motorcycle" speedFactor="1.12" vaporized=""/>
    <tripinfo id="veh21" depart="11.00" departLane="571283261#0_1" departPos="5.10" departSpeed="23.24" departDelay="0.02" arrival="153.00" arrivalLane="376927932#0_0" arrivalPos="133.19" arrivalSpeed="22.06" duration="142.00" routeLength="2130.56" waitingTime="5.00" waitingCount="2" stopTime="0.00" timeLoss="52.38" rerouteNo="1" devices="tripinfo_veh21 routing_veh21" vType="veh_passenger" speedFactor="1.05" vaporized=""/>
    <tripinfo id="veh76" depart="40.00" departLane="646210542#5_2" departPos="5.10" departSpeed="0.00" departDelay="0.27" arrival="155.00" arrivalLane="215089911#0_0" arrivalPos="138.73" arrivalSpeed="21.51" duration="115.00" routeLength="1178.28" waitingTime="16.00" waitingCount="3" stopTime="0.00" timeLoss="64.70" rerouteNo="1" devices="tripinfo_veh76 routing_veh76" vType="veh_passenger" speedFactor="0.99" vaporized=""/>
    <tripinfo id="truck1" depart="3.00" departLane="-1206809261#1_0" departPos="7.10" departSpeed="0.00" departDelay="0.39" arrival="156.00" arrivalLane="-659857898#1_0" arrivalPos="10.56" arrivalSpeed="13.95" duration="153.00" routeLength="1340.23" waitingTime="31.00" waitingCount="4" stopTime="0.00" timeLoss="78.94" rerouteNo="1" devices="tripinfo_truck1 routing_truck1" vType="truck_truck" speedFactor="1.01" vaporized=""/>
    <tripinfo id="motorcycle100" depart="105.00" departLane="-215089976#0_0" departPos="2.30" departSpeed="0.00" departDelay="0.43" arrival="156.00" arrivalLane="-31017880#5_0" arrivalPos="18.78" arrivalSpeed="8.94" duration="51.00" routeLength="390.10" waitingTime="14.00" waitingCount="2" stopTime="0.00" timeLoss="27.23" rerouteNo="1" devices="tripinfo_motorcycle100 routing_motorcycle100" vType="motorcycle_motorcycle" speedFactor="1.01" vaporized=""/>
    <tripinfo id="veh64" depart="34.00" departLane="151770988#6_0" departPos="5.10" departSpeed="0.00" departDelay="0.54" arrival="162.00" arrivalLane="31017890#2_0" arrivalPos="36.33" arrivalSpeed="30.30" duration="128.00" routeLength="1671.95" waitingTime="4.00" waitingCount="2" stopTime="0.00" timeLoss="55.78" rerouteNo="1" devices="tripinfo_veh64 routing_veh64" vType="veh_passenger" speedFactor="1.12" vaporized=""/>
    <tripinfo id="veh53" depart="28.00" departLane="151770988#3_0" departPos="5.10" departSpeed="0.00" departDelay="0.29" arrival="164.00" arrivalLane="707832926#9_0" arrivalPos="77.56" arrivalSpeed="22.66" duration="136.00" routeLength="2269.67" waitingTime="1.00" waitingCount="1" stopTime="0.00" timeLoss="33.58" rerouteNo="1" devices="tripinfo_veh53 routing_veh53" vType="veh_passenger" speedFactor="1.03" vaporized=""/>
    <tripinfo id="veh172" depart="90.00" departLane="1164686618#0_0" departPos="5.10" departSpeed="37.42" departDelay="0.07" arrival="164.00" arrivalLane="376927932#0_0" arrivalPos="133.19" arrivalSpeed="20.74" duration="74.00" routeLength="993.97" waitingTime="15.00" waitingCount="1" stopTime="0.00" timeLoss="31.34" rerouteNo="1" devices="tripinfo_veh172 routing_veh172" vType="veh_passenger" speedFactor="0.95" vaporized=""/>
    <tripinfo id="truck16" depart="42.00" departLane="-31017880#0_0" departPos="7.20" departSpeed="0.00" departDelay="0.17" arrival="171.00" arrivalLane="1175896817_0" arrivalPos="84.74" arrivalSpeed="13.27" duration="129.00" routeLength="1321.87" waitingTime="8.00" waitingCount="2" stopTime="0.00" timeLoss="60.54" rerouteNo="1" devices="tripinfo_truck16 routing_truck16" vType="truck_truck" speedFactor="1.03" vaporized=""/>
    <tripinfo id="motorcycle22" depart="23.00" departLane="215089908#1_0" departPos="2.30" departSpeed="0.00" departDelay="0.00" arrival="178.00" arrivalLane="-749128442#1_0" arrivalPos="33.39" arrivalSpeed="8.75" duration="155.00" routeLength="1024.53" waitingTime="53.00" waitingCount="5" stopTime="0.00" timeLoss="89.88" rerouteNo="1" devices="tripinfo_motorcycle22 routing_motorcycle22" vType="motorcycle_motorcycle" speedFactor="0.88" vaporized=""/>
    <tripinfo id="truck4" depart="11.00" departLane="-415062374_0" departPos="7.20" departSpeed="13.56" departDelay="0.54" arrival="178.00" arrivalLane="361760637_0" arrivalPos="8.67" arrivalSpeed="10.62" duration="167.00" routeLength="2161.44" waitingTime="20.00" waitingCount="3" stopTime="0.00" timeLoss="73.44" rerouteNo="1" devices="tripinfo_truck4 routing_truck4" vType="truck_truck" speedFactor="0.98" vaporized=""/>
    <tripinfo id="veh235" depart="125.00" departLane="1305503506_0" departPos="5.10" departSpeed="0.00" departDelay="2.14" arrival="187.00" arrivalLane="646210542#3_0" arrivalPos="18.80" arrivalSpeed="31.83" duration="62.00" routeLength="1092.25" waitingTime="0.00" waitingCount="0" stopTime="0.00" timeLoss="20.31" rerouteNo="1" devices="tripinfo_veh235 routing_veh235" vType="veh_passenger" speedFactor="1.18" vaporized=""/>
    <tripinfo id="veh226" depart="119.00" departLane="-1431976930#1_0" departPos="5.10" departSpeed="0.00" departDelay="0.84" arrival="190.00" arrivalLane="-1431976931_0" arrivalPos="53.12" arrivalSpeed="13.10" duration="71.00" routeLength="604.51" waitingTime="7.00" waitingCount="2" stopTime="0.00" timeLoss="24.31" rerouteNo="1" devices="tripinfo_veh226 routing_veh226" vType="veh_passenger" speedFactor="0.97" vaporized=""/>
    <tripinfo id="veh79" depart="42.00" departLane="-215090064_0" departPos="5.10" departSpeed="0.00" departDelay="0.70" arrival="194.00" arrivalLane="646210542#2_0" arrivalPos="75.23" arrivalSpeed="24.90" duration="152.00" routeLength="1477.42" waitingTime="13.00" waitingCount="3" stopTime="0.00" timeLoss="66.83" rerouteNo="1" devices="tripinfo_veh79 routing_veh79" vType="veh_passenger" speedFactor="0.93" vaporized=""/>
    <tripinfo id="truck7" depart="19.00" departLane="-1431976930#1_0" departPos="7.20" departSpeed="0.00" departDelay="0.70" arrival="207.00" arrivalLane="-151770988#4_0" arrivalPos="29.11" arrivalSpeed="8.00" duration="188.00" routeLength="1628.73" waitingTime="22.00" waitingCount="6" stopTime="0.00" timeLoss="106.30" rerouteNo="1" devices="tripinfo_truck7 routing_truck7" vType="truck_truck" speedFactor="1.04" vaporized=""/>
    <tripinfo id="veh100" depart="53.00" departLane="646210542#6_0" departPos="5.10" departSpeed="0.00" departDelay="0.72" arrival="209.00" arrivalLane="215089968_0" arrivalPos="87.23" arrivalSpeed="2.22" duration="156.00" routeLength="1263.64" waitingTime="2.00" waitingCount="1" stopTime="0.00" timeLoss="62.09" rerouteNo="1" devices="tripinfo_veh100 routing_veh100" vType="veh_passenger" speedFactor="0.94" vaporized=""/>
    <tripinfo id="bus13" depart="23.00" departLane="-646210541#1_0" departPos="12.10" departSpeed="0.00" departDelay="0.34" arrival="216.00" arrivalLane="-215090078#0_0" arrivalPos="119.56" arrivalSpeed="13.78" duration="193.00" routeLength="1560.48" waitingTime="26.00" waitingCount="5" stopTime="0.00" timeLoss="113.24" rerouteNo="1" devices="tripinfo_bus13 routing_bus13" vType="bus_bus" speedFactor="1.00" vaporized=""/>
    <tripinfo id="veh103" depart="54.00" departLane="215090046#5_0" departPos="5.10" departSpeed="0.00" departDelay="0.15" arrival="217.00" arrivalLane="361760636_0" arrivalPos="56.86" arrivalSpeed="16.69" duration="163.00" routeLength="1511.86" waitingTime="24.00" waitingCount="5" stopTime="0.00" timeLoss="89.74" rerouteNo="1" devices="tripinfo_veh103 routing_veh103" vType="veh_passenger" speedFactor="1.16" vaporized=""/>
    <tripinfo id="veh222" depart="117.00" departLane="566888447#3_2" departPos="5.10" departSpeed="0.00" departDelay="0.93" arrival="219.00" arrivalLane="415062374_0" arrivalPos="75.66" arrivalSpeed="14.00" duration="102.00" routeLength="1232.95" waitingTime="3.00" waitingCount="1" stopTime="0.00" timeLoss="38.89" rerouteNo="1" devices="tripinfo_veh222 routing_veh222" vType="veh_passenger" speedFactor="1.02" vaporized=""/>
    <tripinfo id="truck23" depart="61.00" departLane="31017896#1_0" departPos="7.20" departSpeed="0.00" departDelay="0.87" arrival="223.00" arrivalLane="1178096191_0" arrivalPos="54.81" arrivalSpeed="12.13" duration="162.00" routeLength="983.43" waitingTime="49.00" waitingCount="5" stopTime="0.00" timeLoss="115.94" rerouteNo="1" devices="tripinfo_truck23 routing_truck23" vType="truck_truck" speedFactor="0.96" vaporized=""/>
    <tripinfo id="motorcycle147" depart="154.00" departLane="-31017880#2_0" departPos="2.30" departSpeed="0.00" departDelay="0.29" arrival="225.00" arrivalLane="1154579502_0" arrivalPos="29.24" arrivalSpeed="11.89" duration="71.00" routeLength="646.19" waitingTime="13.00" waitingCount="3" stopTime="0.00" timeLoss="38.31" rerouteNo="1" devices="tripinfo_motorcycle147 routing_motorcycle147" vType="motorcycle_motorcycle" speedFactor="1.02" vaporized=""/>
    <tripinfo id="motorcycle113" depart="119.00" departLane="-566962242#4_0" departPos="2.30" departSpeed="0.00" departDelay="0.84" arrival="227.00" arrivalLane="-1195576992#2_0" arrivalPos="18.27" arrivalSpeed="25.05" duration="108.00" routeLength="1149.66" waitingTime="26.00" waitingCount="3" stopTime="0.00" timeLoss="55.86" rerouteNo="1" devices="tripinfo_motorcycle113 routing_motorcycle113" vType="motorcycle_motorcycle" speedFactor="1.15" vaporized=""/>
    <tripinfo id="veh217" depart="114.00" departLane="-31017880#2_0" departPos="5.10" departSpeed="0.00" departDelay="0.55" arrival="229.00" arrivalLane="376927932#0_0" arrivalPos="133.19" arrivalSpeed="21.64" duration="115.00" routeLength="1249.00" waitingTime="23.00" waitingCount="3" stopTime="0.00" timeLoss="68.87" rerouteNo="1" devices="tripinfo_veh217 routing_veh217" vType="veh_passenger" speedFactor="1.17" vaporized=""/>
    <tripinfo id="motorcycle181" depart="190.00" departLane="-215089904#4_0" departPos="2.30" departSpeed="0.00" departDelay="0.74" arrival="234.00" arrivalLane="825118129#4_0" arrivalPos="85.51" arrivalSpeed="24.55" duration="44.00" routeLength="352.31" waitingTime="10.00" waitingCount="2" stopTime="0.00" timeLoss="24.11" rerouteNo="1" devices="tripinfo_motorcycle181 routing_motorcycle181" vType="motorcycle_motorcycle" speedFactor="1.12" vaporized=""/>
    <tripinfo id="motorcycle177" depart="186.00" departLane="1431978404#3_0" departPos="2.30" departSpeed="0.00" departDelay="0.92" arrival="236.00" arrivalLane="-569823304_0" arrivalPos="10.62" arrivalSpeed="5.03" duration="50.00" routeLength="201.56" waitingTime="21.00" waitingCount="1" stopTime="0.00" timeLoss="39.48" rerouteNo="1" devices="tripinfo_motorcycle177 routing_motorcycle177" vType="motorcycle_motorcycle" speedFactor="1.01" vaporized=""/>
    <tripinfo id="veh210" depart="110.00" departLane="703914561#0_0" departPos="5.10" departSpeed="0.00" departDelay="0.21" arrival="237.00" arrivalLane="31017880#2_0" arrivalPos="79.74" arrivalSpeed="21.20" duration="127.00" routeLength="1356.29" waitingTime="16.00" waitingCount="2" stopTime="0.00" timeLoss="56.66" rerouteNo="1" devices="tripinfo_veh210 routing_veh210" vType="veh_passenger" speedFactor="1.01" vaporized=""/>
    <tripinfo id="veh141" depart="74.00" departLane="1190740105_0" departPos="5.10" departSpeed="2.71" departDelay="0.28" arrival="242.00" arrivalLane="1217688135#2_0" arrivalPos="105.97" arrivalSpeed="20.73" duration="168.00" routeLength="1372.46" waitingTime="27.00" waitingCount="3" stopTime="0.00" timeLoss="88.51" rerouteNo="1" devices="tripinfo_veh141 routing_veh141" vType="veh_passenger" speedFactor="0.97" vaporized=""/>
    <tripinfo id="motorcycle1" depart="2.00" departLane="-215089911#2_0" departPos="2.30" departSpeed="0.00" departDelay="0.95" arrival="244.00" arrivalLane="1190739881_0" arrivalPos="20.34" arrivalSpeed="2.44" duration="242.00" routeLength="1498.98" waitingTime="84.00" waitingCount="8" stopTime="0.00" timeLoss="145.47" rerouteNo="1" devices="tripinfo_motorcycle1 routing_motorcycle1" vType="motorcycle_motorcycle" speedFactor="0.94" vaporized=""/>
    <tripinfo id="veh94" depart="50.00" departLane="215089911#6_0" departPos="5.10" departSpeed="0.00" departDelay="0.85" arrival="246.00" arrivalLane="1154579502_0" arrivalPos="29.24" arrivalSpeed="12.28" duration="196.00" routeLength="1199.90" waitingTime="54.00" waitingCount="8" stopTime="0.00" timeLoss="131.23" rerouteNo="1" devices="tripinfo_veh94 routing_veh94" vType="veh_passenger" speedFactor="0.94" vaporized=""/>
    <tripinfo id="veh220" depart="116.00" departLane="151770986_1" departPos="5.10" departSpeed="0.00" departDelay="0.98" arrival="247.00" arrivalLane="-215089916#3_0" arrivalPos="40.87" arrivalSpeed="12.95" duration="131.00" routeLength="928.04" waitingTime="33.00" waitingCount="5" stopTime="0.00" timeLoss="71.60" rerouteNo="1" devices="tripinfo_veh220 routing_veh220" vType="veh_passenger" speedFactor="0.99" vaporized=""/>
    <tripinfo id="veh203" depart="107.00" departLane="571283261#4_1" departPos="5.10" departSpeed="0.00" departDelay="0.87" arrival="248.00" arrivalLane="566888447#3_0" arrivalPos="12.48" arrivalSpeed="17.89" duration="141.00" routeLength="1660.12" waitingTime="11.00" waitingCount="3" stopTime="0.00" timeLoss="81.71" rerouteNo="1" devices="tripinfo_veh203 routing_veh203" vType="veh_passenger" speedFactor="1.18" vaporized=""/>
    <tripinfo id="veh244" depart="130.00" departLane="31017896#1_0" departPos="5.10" departSpeed="0.00" departDelay="2.43" arrival="249.00" arrivalLane="827899848_0" arrivalPos="37.40" arrivalSpeed="11.61" duration="119.00" routeLength="1011.68" waitingTime="18.00" waitingCount="2" stopTime="0.00" timeLoss="52.51" rerouteNo="1" devices="tripinfo_veh244 routing_veh244" vType="veh_passenger" speedFactor="0.90" vaporized=""/>
    <tripinfo id="veh326" depart="171.00" departLane="749128442#1_0" departPos="5.10" departSpeed="0.00" departDelay="0.56" arrival="249.00" arrivalLane="588859419#3_0" arrivalPos="117.60" arrivalSpeed="17.67" duration="78.00" routeLength="753.19" waitingTime="6.00" waitingCount="1" stopTime="0.00" timeLoss="33.66" rerouteNo="1" devices="tripinfo_veh326 routing_veh326" vType="veh_passenger" speedFactor="0.85" vaporized=""/>
    <tripinfo id="motorcycle131" depart="137.00" departLane="-1160006921#2_0" departPos="2.30" departSpeed="0.00" departDelay="0.02" arrival="251.00" arrivalLane="569823304_0" arrivalPos="10.62" arrivalSpeed="9.07" duration="114.00" routeLength="1649.51" waitingTime="5.00" waitingCount="2" stopTime="0.00" timeLoss="46.08" rerouteNo="1" devices="tripinfo_motorcycle131 routing_motorcycle131" vType="motorcycle_motorcycle" speedFactor="1.02" vaporized=""/>
    <tripinfo id="veh295" depart="155.00" departLane="-787858368#1_0" departPos="5.10" departSpeed="0.00" departDelay="0.77" arrival="257.00" arrivalLane="-1160006921#0_0" arrivalPos="235.13" arrivalSpeed="24.01" duration="102.00" routeLength="1201.91" waitingTime="11.00" waitingCount="1" stopTime="0.00" timeLoss="43.38" rerouteNo="1" devices="tripinfo_veh295 routing_veh295" vType="veh_passenger" speedFactor="1.09" vaporized=""/>
    <tripinfo id="veh313" depart="164.00" departLane="-215090004#0_0" departPos="5.10" departSpeed="0.00" departDelay="0.35" arrival="257.00" arrivalLane="-1195576992#7_0" arrivalPos="21.70" arrivalSpeed="21.61" duration="93.00" routeLength="1306.66" waitingTime="6.00" waitingCount="1" stopTime="0.00" timeLoss="29.92" rerouteNo="1" devices="tripinfo_veh313 routing_veh313" vType="veh_passenger" speedFactor="1.00" vaporized=""/>
    <tripinfo id="veh262" depart="137.00" departLane="-749128442#0_0" departPos="5.10" departSpeed="0.00" departDelay="0.02" arrival="259.00" arrivalLane="31017896#0_0" arrivalPos="128.43" arrivalSpeed="26.65" duration="122.00" routeLength="1215.59" waitingTime="23.00" waitingCount="3" stopTime="0.00" timeLoss="67.28" rerouteNo="1" devices="tripinfo_veh262 routing_veh262" vType="veh_passenger" speedFactor="1.04" vaporized=""/>
    <tripinfo id="truck19" depart="50.00" departLane="787945997_0" departPos="7.20" departSpeed="0.00" departDelay="0.33" arrival="259.00" arrivalLane="596071807#1_0" arrivalPos="121.05" arrivalSpeed="13.13" duration="209.00" routeLength="1367.04" waitingTime="30.00" waitingCount="6" stopTime="0.00" timeLoss="127.77" rerouteNo="1" devices="tripinfo_truck19 routing_truck19" vType="truck_truck" speedFactor="0.98" vaporized=""/>
    <tripinfo id="motorcycle108" depart="114.00" departLane="-1431978404#3_0" departPos="2.30" departSpeed="0.00" departDelay="1.07" arrival="263.00" arrivalLane="215090078#1_0" arrivalPos="41.51" arrivalSpeed="12.17" duration="149.00" routeLength="792.48" waitingTime="48.00" waitingCount="6" stopTime="0.00" timeLoss="105.36" rerouteNo="1" devices="tripinfo_motorcycle108 routing_motorcycle108" vType="motorcycle_motorcycle" speedFactor="1.00" vaporized=""/>
    <tripinfo id="motorcycle111" depart="117.00" departLane="215090070#0_0" departPos="2.30" departSpeed="0.00" departDelay="0.93" arrival="264.00" arrivalLane="151770988#5_0" arrivalPos="18.68" arrivalSpeed="11.67" duration="147.00" routeLength="1648.75" waitingTime="14.00" waitingCount="2" stopTime="0.00" timeLoss="55.81" rerouteNo="1" devices="tripinfo_motorcycle111 routing_motorcycle111" vType="motorcycle_motorcycle" speedFactor="0.97" vaporized=""/>