<?xml version="1.0" encoding="UTF-8"?>

<!-- generated on 2025-12-29T06:36:54.681686+05:30 by Eclipse SUMO sumo 1.25.0
<sumoConfiguration xmlns:xsi="http://www.w3.org/2001/XMLSchema-instance" xsi:noNamespaceSchemaLocation="http://sumo.dlr.de/xsd/sumoConfiguration.xsd">

    <input>
        <net-file value="/mnt/Windows-SSD/Users/yvavi/yeet/coding/projects/delhi/Code-Slayer-FDRL-Traffic/vegha/Server/coldplay2/osm2.net.xml.gz"/>
        <route-files value="/mnt/Windows-SSD/Users/yvavi/yeet/coding/projects/delhi/Code-Slayer-FDRL-Traffic/vegha/Server/coldplay2/   osm.passenger.trips_scaled.xml,/mnt/Windows-SSD/Users/yvavi/yeet/coding/projects/delhi/Code-Slayer-FDRL-Traffic/vegha/Server/coldplay2/   osm.motorcycle.trips_scaled.xml,/mnt/Windows-SSD/Users/yvavi/yeet/coding/projects/delhi/Code-Slayer-FDRL-Traffic/vegha/Server/coldplay2/   osm.bus.trips_scaled.xml,/mnt/Windows-SSD/Users/yvavi/yeet/coding/projects/delhi/Code-Slayer-FDRL-Traffic/vegha/Server/coldplay2/   osm.truck.trips_scaled.xml"/>
        <additional-files value="/mnt/Windows-SSD/Users/yvavi/yeet/coding/projects/delhi/Code-Slayer-FDRL-Traffic/vegha/Server/coldplay2/osm.poly.xml.gz,/mnt/Windows-SSD/Users/yvavi/yeet/coding/projects/delhi/Code-Slayer-FDRL-Traffic/vegha/Server/coldplay2/output.add.xml,/mnt/Windows-SSD/Users/yvavi/yeet/coding/projects/delhi/Code-Slayer-FDRL-Traffic/vegha/Server/coldplay2/rl_traffic_lights.add.xml"/>
    </input>

    <output>
        <tripinfo-output value="/mnt/Windows-SSD/Users/yvavi/yeet/coding/projects/delhi/Code-Slayer-FDRL-Traffic/vegha/Server/coldplay2/tripinfos.xml"/>
        <statistic-output value="/mnt/Windows-SSD/Users/yvavi/yeet/coding/projects/delhi/Code-Slayer-FDRL-Traffic/vegha/Server/coldplay2/stats.xml"/>
    </output>

    <time>
        <step-length value="1"/>
    </time>

    <processing>
        <ignore-route-errors value="true"/>
        <tls.actuated.jam-threshold value="30"/>
    </processing>

    <routing>
        <device.rerouting.adaptation-steps value="18"/>
        <device.rerouting.adaptation-interval value="10"/>
    </routing>

    <report>
        <verbose value="true"/>
        <no-warnings value="true"/>
        <duration-log.statistics value="true"/>
        <no-step-log value="true"/>
    </report>

    <gui_only>
        <gui-settings-file value="/mnt/Windows-SSD/Users/yvavi/yeet/coding/projects/delhi/Code-Slayer-FDRL-Traffic/vegha/Server/coldplay2/osm.view.xml"/>
    </gui_only>

</sumoConfiguration>
-->

<tripinfos xmlns:xsi="http://www.w3.org/2001/XMLSchema-instance" xsi:noNamespaceSchemaLocation="http://sumo.dlr.de/xsd/tripinfo_file.xsd">
    <tripinfo id="motorcycle26" depart="28.00" departLane="423840850#0_0" departPos="2.30" departSpeed="0.00" departDelay="0.81" arrival="42.00" arrivalLane="787858368#1_0" arrivalPos="51.34" arrivalSpeed="12.04" duration="14.00" routeLength="127.74" waitingTime="0.00" waitingCount="0" stopTime="0.00" timeLoss="3.17" rerouteNo="1" devices="tripinfo_motorcycle26 routing_motorcycle26" vType="motorcycle_motorcycle" speedFactor="0.91" vaporized=""/>
    <tripinfo id="veh17" depart="9.00" departLane="1195576992#11_0" departPos="5.10" departSpeed="0.00" departDelay="0.11" arrival="61.00" arrivalLane="-1195576992#4_0" arrivalPos="0.13" arrivalSpeed="11.91" duration="52.00" routeLength="606.19" waitingTime="2.00" waitingCount="1" stopTime="0.00" timeLoss="18.18" rerouteNo="1" devices="tripinfo_veh17 routing_veh17" vType="veh_passenger" speedFactor="0.83" vaporized=""/>
    <tripinfo id="motorcycle24" depart="26.00" departLane="787945997_0" departPos="2.30" departSpeed="0.00" departDelay="0.90" arrival="84.00" arrivalLane="215089904#1_0" arrivalPos="29.87" arrivalSpeed="12.04" duration="58.00" routeLength="540.71" waitingTime="6.00" waitingCount="1" stopTime="0.00" timeLoss="18.63" rerouteNo="1" devices="tripinfo_motorcycle24 routing_motorcycle24" vType="motorcycle_motorcycle" speedFactor="0.91" vaporized=""/>
    <tripinfo id="motorcycle38" depart="40.00" departLane="1192595036#0_0" departPos="2.30" departSpeed="14.21" departDelay="0.27" arrival="91.00" arrivalLane="749128442#2_0" arrivalPos="16.69" arrivalSpeed="22.57" duration="51.00" routeLength="302.58" waitingTime="14.00" waitingCount="4" stopTime="0.00" timeLoss="31.46" rerouteNo="1" devices="tripinfo_motorcycle38 routing_motorcycle38" vType="motorcycle_motorcycle" speedFactor="1.02" vaporized=""/>
    <tripinfo id="veh13" depart="7.00" departLane="1431978404#0_0" departPos="5.10" departSpeed="0.00" departDelay="0.20" arrival="97.00" arrivalLane="708292171_0" arrivalPos="75.43" arrivalSpeed="21.98" duration="90.00" routeLength="556.65" waitingTime="23.00" waitingCount="3" stopTime="0.00" timeLoss="52.30" rerouteNo="1" devices="tripinfo_veh13 routing_veh13" vType="veh_passenger" speedFactor="1.03" vaporized=""/>
    <tripinfo id="motorcycle13" depart="14.00" departLane="-1195576992#10_0" departPos="2.30" departSpeed="0.00" departDelay="0.41" arrival="98.00" arrivalLane="749128442#4_0" arrivalPos="43.64" arrivalSpeed="18.74" duration="84.00" routeLength="1075.48" waitingTime="9.00" waitingCount="2" stopTime="0.00" timeLoss="32.75" rerouteNo="1" devices="tripinfo_motorcycle13 routing_motorcycle13" vType="motorcycle_motorcycle" speedFactor="0.99" vaporized=""/>
    <tripinfo id="veh45" depart="24.00" departLane="566962241_0" departPos="5.10" departSpeed="23.80" departDelay="0.47" arrival="99.00" arrivalLane="-646210541#3_0" arrivalPos="182.51" arrivalSpeed="11.55" duration="75.00" routeLength="1036.30" waitingTime="3.00" waitingCount="1" stopTime="0.00" timeLoss="19.32" rerouteNo="1" devices="tripinfo_veh45 routing_veh45" vType="veh_passenger" speedFactor="0.86" vaporized=""/>
    <tripinfo id="veh115" depart="61.00" departLane="215089917#0_0" departPos="5.10" departSpeed="0.00" departDelay="0.87" arrival="103.00" arrivalLane="215090078#1_0" arrivalPos="41.51" arrivalSpeed="14.02" duration="42.00" routeLength="432.22" waitingTime="0.00" waitingCount="0" stopTime="0.00" timeLoss="10.37" rerouteNo="1" devices="tripinfo_veh115 routing_veh115" vType="veh_passenger" speedFactor="1.02" vaporized=""/>
    <tripinfo id="motorcycle8" depart="9.00" departLane="-646210541#4_0" departPos="2.30" departSpeed="0.00" departDelay="0.63" arrival="103.00" arrivalLane="-151770988#6_0" arrivalPos="35.25" arrivalSpeed="12.21" duration="94.00" routeLength="1013.98" waitingTime="4.00" waitingCount="3" stopTime="0.00" timeLoss="34.64" rerouteNo="1" devices="tripinfo_motorcycle8 routing_motorcycle8" vType="motorcycle_motorcycle" speedFactor="1.02" vaporized=""/>
    <tripinfo id="motorcycle79" depart="83.00" departLane="-151770988#0_0" departPos="2.30" departSpeed="0.00" departDelay="0.39" arrival="103.00" arrivalLane="659857898#2_0" arrivalPos="117.96" arrivalSpeed="12.52" duration="20.00" routeLength="204.23" waitingTime="0.00" waitingCount="0" stopTime="0.00" timeLoss="3.97" rerouteNo="1" devices="tripinfo_motorcycle79 routing_motorcycle79" vType="motorcycle_motorcycle" speedFactor="0.96" vaporized=""/>
    <tripinfo id="veh3" depart="2.00" departLane="-215089911#0_0" departPos="5.10" departSpeed="0.00" departDelay="0.43" arrival="104.00" arrivalLane="-1160006921#0_0" arrivalPos="235.13" arrivalSpeed="23.03" duration="102.00" routeLength="1444.87" waitingTime="9.00" waitingCount="1" stopTime="0.00" timeLoss="42.70" rerouteNo="1" devices="tripinfo_veh3 routing_veh3" vType="veh_passenger" speedFactor="1.06" vaporized=""/>
    <tripinfo id="veh26" depart="14.00" departLane="215225848_0" departPos="5.10" departSpeed="0.00" departDelay="0.41" arrival="114.00" arrivalLane="-1431976930#1_0" arrivalPos="17.75" arrivalSpeed="11.40" duration="100.00" routeLength="706.63" waitingTime="21.00" waitingCount="4" stopTime="0.00" timeLoss="56.29" rerouteNo="1" devices="tripinfo_veh26 routing_veh26" vType="veh_passenger" speedFactor="0.89" vaporized=""/>
</tripinfos>
