<?xml version="1.0" encoding="UTF-8"?>

<!-- generated on 2025-12-29T06:26:04.125526+05:30 by Eclipse SUMO sumo 1.25.0
<sumoConfiguration xmlns:xsi="http://www.w3.org/2001/XMLSchema-instance" xsi:noNamespaceSchemaLocation="http://sumo.dlr.de/xsd/sumoConfiguration.xsd">

    <input>
        <net-file value="/mnt/Windows-SSD/Users/yvavi/yeet/coding/projects/delhi/Code-Slayer-FDRL-Traffic/vegha/Server/coldplay2/osm2.net.xml.gz"/>
        <route-files value="/mnt/Windows-SSD/Users/yvavi/yeet/coding/projects/delhi/Code-Slayer-FDRL-Traffic/vegha/Server/coldplay2/   osm.passenger.trips_scaled.xml,/mnt/Windows-SSD/Users/yvavi/yeet/coding/projects/delhi/Code-Slayer-FDRL-Traffic/vegha/Server/coldplay2/   osm.motorcycle.trips_scaled.xml,/mnt/Windows-SSD/Users/yvavi/yeet/coding/projects/delhi/Code-Slayer-FDRL-Traffic/vegha/Server/coldplay2/   osm.bus.trips_scaled.xml,/mnt/Windows-SSD/Users/yvavi/yeet/coding/projects/delhi/Code-Slayer-FDRL-Traffic/vegha/Server/coldplay2/   osm.truck.trips_scaled.xml"/>
        <additional-files value="/mnt/Windows-SSD/Users/yvavi/yeet/coding/projects/delhi/Code-Slayer-FDRL-Traffic/vegha/Server/coldplay2/osm.poly.xml.gz,/mnt/Windows-SSD/Users/yvavi/yeet/coding/projects/delhi/Code-Slayer-FDRL-Traffic/vegha/Server/coldplay2/output.add.xml,/mnt/Windows-SSD/Users/yvavi/yeet/coding/projects/delhi/Code-Slayer-FDRL-Traffic/vegha/Server/coldplay2/rl_traffic_lights.add.xml"/>
    </input>

    <output>
        <tripinfo-output value="/mnt/Windows-SSD/Users/yvavi/yeet/coding/projects/delhi/Code-Slayer-FDRL-Traffic/vegha/Server/coldplay2/tripinfos.xml"/>
        <statistic-output value="/mnt/Windows-SSD/Users/yvavi/yeet/coding/projects/delhi/Code-Slayer-FDRL-Traffic/vegha/Server/coldplay2/stats.xml"/>
    </output>

    <time>
        <step-length value="1"/>
    </time>

    <processing>
        <ignore-route-errors value="true"/>
        <tls.actuated.jam-threshold value="30"/>
    </processing>

    <routing>
        <device.rerouting.adaptation-steps value="18"/>
        <device.rerouting.adaptation-interval value="10"/>
    </routing>

    <report>
        <verbose value="true"/>
        <no-warnings value="true"/>
        <duration-log.statistics value="true"/>
        <no-step-log value="true"/>
    </report>

    <gui_only>
        <gui-settings-file value="/mnt/Windows-SSD/Users/yvavi/yeet/coding/projects/delhi/Code-Slayer-FDRL-Traffic/vegha/Server/coldplay2/osm.view.xml"/>
    </gui_only>

</sumoConfiguration>
-->

<tripinfos xmlns:xsi="http://www.w3.org/2001/XMLSchema-instance" xsi:noNamespaceSchemaLocation="http://sumo.dlr.de/xsd/tripinfo_file.xsd">
    <tripinfo id="motorcycle1" depart="2.00" departLane="-215089911#2_0" departPos="2.30" departSpeed="0.00" departDelay="0.95" arrival="8.00" arrivalLane="-215089911#1_0" arrivalPos="10.19" arrivalSpeed="18.92" duration="6.00" routeLength="54.48" waitingTime="0.00" waitingCount="0" stopTime="0.00" timeLoss="2.39" rerouteNo="1" devices="tripinfo_motorcycle1 routing_motorcycle1" vType="motorcycle_motorcycle" speedFactor="0.94" vaporized="traci"/>
    <tripinfo id="motorcycle6" depart="7.00" departLane="1431976931_0" departPos="2.30" departSpeed="0.00" departDelay="0.73" arrival="8.00" arrivalLane="1431976931_0" arrivalPos="2.30" arrivalSpeed="0.00" duration="1.00" routeLength="0.00" waitingTime="0.00" waitingCount="0" stopTime="0.00" timeLoss="0.00" rerouteNo="1" devices="tripinfo_motorcycle6 routing_motorcycle6" vType="motorcycle_motorcycle" speedFactor="1.12" vaporized="traci"/>
</tripinfos>
